<?xml version="1.0" encoding="ISO-8859-1"?>
<modeling>
 <generator>
  <i name="program" type="string">vasp </i>
  <i name="version" type="string">5.4.1  </i>
  <i name="subversion" type="string">24Jun15 (build Feb 01 2016 23:38:11) complex                          parallel </i>
  <i name="platform" type="string">IFC91_impi </i>
  <i name="date" type="string">2016 08 25 </i>
  <i name="time" type="string">07:35:05 </i>
 </generator>
 <incar>
  <i type="string" name="PREC">accurate</i>
  <i type="string" name="ALGO"> Normal</i>
  <i type="int" name="ISPIN">     2</i>
  <i type="int" name="ICHARG">     0</i>
  <i type="int" name="NELM">   100</i>
  <i type="int" name="IBRION">     8</i>
  <i name="EDIFF">      0.00000100</i>
  <i type="int" name="ISIF">     3</i>
  <i name="ENCUT">    600.00000000</i>
  <v name="MAGMOM">      0.00000000      0.00000000</v>
  <i type="string" name="LREAL"> Auto</i>
  <i type="int" name="ISMEAR">    -5</i>
  <i name="SIGMA">      0.05000000</i>
  <i type="logical" name="LWAVE"> F  </i>
  <i type="logical" name="LCHARG"> T  </i>
  <i type="logical" name="LVHAR"> T  </i>
  <i type="logical" name="LORBIT"> F  </i>
  <i type="logical" name="LAECHG"> T  </i>
  <v type="int" name="KPOINT_BSE">    -1     0     0     0</v>
  <i type="int" name="NELM">   100</i>
  <i type="logical" name="LEPSILON"> T  </i>
 </incar>
 <kpoints>
  <generation param="Gamma">
   <v type="int" name="divisions">      11       11       11 </v>
   <v name="usershift">      0.00000000       0.00000000       0.00000000 </v>
   <v name="genvec1">      0.09090909      -0.00000000       0.00000000 </v>
   <v name="genvec2">      0.00000000       0.09090909       0.00000000 </v>
   <v name="genvec3">      0.00000000       0.00000000       0.09090909 </v>
   <v name="shift">      0.00000000       0.00000000       0.00000000 </v>
  </generation>
  <varray name="kpointlist" >
   <v>       0.00000000       0.00000000       0.00000000 </v>
   <v>       0.09090909       0.00000000      -0.00000000 </v>
   <v>       0.18181818       0.00000000      -0.00000000 </v>
   <v>       0.27272727       0.00000000       0.00000000 </v>
   <v>       0.36363636       0.00000000      -0.00000000 </v>
   <v>       0.45454545       0.00000000       0.00000000 </v>
   <v>       0.00000000       0.09090909      -0.00000000 </v>
   <v>       0.18181818       0.09090909      -0.00000000 </v>
   <v>       0.27272727       0.09090909      -0.00000000 </v>
   <v>       0.36363636       0.09090909      -0.00000000 </v>
   <v>       0.45454545       0.09090909       0.00000000 </v>
   <v>      -0.45454545       0.09090909       0.00000000 </v>
   <v>      -0.36363636       0.09090909       0.00000000 </v>
   <v>      -0.27272727       0.09090909       0.00000000 </v>
   <v>      -0.18181818       0.09090909      -0.00000000 </v>
   <v>      -0.09090909       0.09090909      -0.00000000 </v>
   <v>       0.00000000       0.18181818      -0.00000000 </v>
   <v>       0.36363636       0.18181818      -0.00000000 </v>
   <v>       0.45454545       0.18181818       0.00000000 </v>
   <v>      -0.45454545       0.18181818      -0.00000000 </v>
   <v>      -0.36363636       0.18181818      -0.00000000 </v>
   <v>      -0.27272727       0.18181818      -0.00000000 </v>
   <v>      -0.18181818       0.18181818      -0.00000000 </v>
   <v>      -0.09090909       0.18181818       0.00000000 </v>
   <v>       0.00000000       0.27272727      -0.00000000 </v>
   <v>      -0.45454545       0.27272727      -0.00000000 </v>
   <v>      -0.36363636       0.27272727      -0.00000000 </v>
   <v>      -0.27272727       0.27272727      -0.00000000 </v>
   <v>      -0.18181818       0.27272727      -0.00000000 </v>
   <v>      -0.09090909       0.27272727      -0.00000000 </v>
   <v>       0.00000000       0.36363636      -0.00000000 </v>
   <v>      -0.27272727       0.36363636       0.00000000 </v>
   <v>      -0.18181818       0.36363636       0.00000000 </v>
   <v>      -0.09090909       0.36363636      -0.00000000 </v>
   <v>       0.00000000       0.45454545      -0.00000000 </v>
   <v>      -0.09090909       0.45454545      -0.00000000 </v>
   <v>       0.27272727       0.09090909       0.09090909 </v>
   <v>       0.36363636       0.09090909       0.09090909 </v>
   <v>       0.45454545       0.09090909       0.09090909 </v>
   <v>      -0.45454545       0.09090909       0.09090909 </v>
   <v>       0.45454545       0.18181818       0.09090909 </v>
   <v>      -0.45454545       0.18181818       0.09090909 </v>
   <v>      -0.36363636       0.18181818       0.09090909 </v>
   <v>      -0.27272727       0.18181818       0.09090909 </v>
   <v>      -0.18181818       0.18181818       0.09090909 </v>
   <v>      -0.09090909       0.18181818       0.09090909 </v>
   <v>      -0.36363636       0.27272727       0.09090909 </v>
   <v>      -0.27272727       0.27272727       0.09090909 </v>
   <v>      -0.18181818       0.27272727       0.09090909 </v>
   <v>      -0.09090909       0.27272727       0.09090909 </v>
   <v>      -0.18181818       0.36363636       0.09090909 </v>
   <v>      -0.09090909       0.36363636       0.09090909 </v>
   <v>      -0.45454545       0.18181818       0.18181818 </v>
   <v>      -0.36363636       0.18181818       0.18181818 </v>
   <v>      -0.27272727       0.27272727       0.18181818 </v>
   <v>      -0.18181818       0.27272727       0.18181818 </v>
  </varray>
  <varray name="weights" >
   <v>       0.00075131 </v>
   <v>       0.00601052 </v>
   <v>       0.00601052 </v>
   <v>       0.00601052 </v>
   <v>       0.00601052 </v>
   <v>       0.00601052 </v>
   <v>       0.00450789 </v>
   <v>       0.00901578 </v>
   <v>       0.01803156 </v>
   <v>       0.01803156 </v>
   <v>       0.01803156 </v>
   <v>       0.01803156 </v>
   <v>       0.01803156 </v>
   <v>       0.01803156 </v>
   <v>       0.01803156 </v>
   <v>       0.01803156 </v>
   <v>       0.00450789 </v>
   <v>       0.00901578 </v>
   <v>       0.01803156 </v>
   <v>       0.01803156 </v>
   <v>       0.01803156 </v>
   <v>       0.01803156 </v>
   <v>       0.01803156 </v>
   <v>       0.01803156 </v>
   <v>       0.00450789 </v>
   <v>       0.00901578 </v>
   <v>       0.01803156 </v>
   <v>       0.01803156 </v>
   <v>       0.01803156 </v>
   <v>       0.01803156 </v>
   <v>       0.00450789 </v>
   <v>       0.00901578 </v>
   <v>       0.01803156 </v>
   <v>       0.01803156 </v>
   <v>       0.00450789 </v>
   <v>       0.00901578 </v>
   <v>       0.01803156 </v>
   <v>       0.03606311 </v>
   <v>       0.03606311 </v>
   <v>       0.03606311 </v>
   <v>       0.01803156 </v>
   <v>       0.03606311 </v>
   <v>       0.03606311 </v>
   <v>       0.03606311 </v>
   <v>       0.03606311 </v>
   <v>       0.01803156 </v>
   <v>       0.01803156 </v>
   <v>       0.03606311 </v>
   <v>       0.03606311 </v>
   <v>       0.01803156 </v>
   <v>       0.01803156 </v>
   <v>       0.01803156 </v>
   <v>       0.01803156 </v>
   <v>       0.03606311 </v>
   <v>       0.01803156 </v>
   <v>       0.01803156 </v>
  </varray>
  <varray name="tetrahedronlist"  type="int" >
   <v type="int" >        4        1        2        2        2 </v>
   <v type="int" >        8        1        2        2        7 </v>
   <v type="int" >        8        2        2        7       16 </v>
   <v type="int" >        4        2        2        2        7 </v>
   <v type="int" >        8        2        2        7        8 </v>
   <v type="int" >        8        2        2        8       16 </v>
   <v type="int" >        8        2        3        7        8 </v>
   <v type="int" >        4        2        7        8        8 </v>
   <v type="int" >        8        3        7        8       16 </v>
   <v type="int" >        8        7        8       16       16 </v>
   <v type="int" >        4        7        8        8       16 </v>
   <v type="int" >        8        3        4        9       16 </v>
   <v type="int" >       16        3        8        9       16 </v>
   <v type="int" >       12        8        9       16       16 </v>
   <v type="int" >        8        4        9       15       16 </v>
   <v type="int" >       16        9       15       16       37 </v>
   <v type="int" >        8        9       16       16       37 </v>
   <v type="int" >        8        4        5       10       15 </v>
   <v type="int" >       16        4        9       10       15 </v>
   <v type="int" >        8        9       10       15       37 </v>
   <v type="int" >        8        5       10       14       15 </v>
   <v type="int" >       16       10       14       15       38 </v>
   <v type="int" >        8       10       15       37       38 </v>
   <v type="int" >        8        5        6       11       14 </v>
   <v type="int" >       16        5       10       11       14 </v>
   <v type="int" >        8       10       11       14       38 </v>
   <v type="int" >        8        6       11       13       14 </v>
   <v type="int" >       16       11       13       14       39 </v>
   <v type="int" >        8       11       14       38       39 </v>
   <v type="int" >        8        6        6       12       13 </v>
   <v type="int" >       24        6       11       12       13 </v>
   <v type="int" >        8       11       12       13       39 </v>
   <v type="int" >       28        6       12       12       13 </v>
   <v type="int" >       24       12       12       13       40 </v>
   <v type="int" >        8       12       13       39       40 </v>
   <v type="int" >        8        5        6       12       13 </v>
   <v type="int" >        8        5       11       12       13 </v>
   <v type="int" >       24       11       12       13       40 </v>
   <v type="int" >       12       12       13       40       40 </v>
   <v type="int" >        8        4        5       11       14 </v>
   <v type="int" >       16        5       11       13       14 </v>
   <v type="int" >        8       11       13       14       40 </v>
   <v type="int" >        8        4       10       11       14 </v>
   <v type="int" >       16       10       11       14       39 </v>
   <v type="int" >        8       11       14       39       40 </v>
   <v type="int" >        8        3        4       10       15 </v>
   <v type="int" >       16        4       10       14       15 </v>
   <v type="int" >        8       10       14       15       39 </v>
   <v type="int" >        8        3        9       10       15 </v>
   <v type="int" >       16        9       10       15       38 </v>
   <v type="int" >        8       10       15       38       39 </v>
   <v type="int" >        8        2        3        9       16 </v>
   <v type="int" >       16        3        9       15       16 </v>
   <v type="int" >        8        9       15       16       38 </v>
   <v type="int" >        8        2        8        9       16 </v>
   <v type="int" >       16        8        9       16       37 </v>
   <v type="int" >        8        9       16       37       38 </v>
   <v type="int" >        8        1        2        7        8 </v>
   <v type="int" >       16        2        7        8       16 </v>
   <v type="int" >        8        7        8       16       37 </v>
   <v type="int" >        8        2        7       16       16 </v>
   <v type="int" >        8        7       16       16       17 </v>
   <v type="int" >        8       16       16       17       24 </v>
   <v type="int" >       12        2        8       16       16 </v>
   <v type="int" >        8        8       16       16       37 </v>
   <v type="int" >        8       16       16       24       37 </v>
   <v type="int" >        4        2        3        8        8 </v>
   <v type="int" >       16        2        3        8       16 </v>
   <v type="int" >        8        3        8       16       37 </v>
   <v type="int" >        4        3        8        8       16 </v>
   <v type="int" >        8        3        8        9       37 </v>
   <v type="int" >        8        8        9        9       16 </v>
   <v type="int" >        4        3        9        9       16 </v>
   <v type="int" >        8        9        9       16       37 </v>
   <v type="int" >        4        9        9       15       16 </v>
   <v type="int" >        8        9       10       18       37 </v>
   <v type="int" >        8        9        9       18       37 </v>
   <v type="int" >        8        9       15       18       37 </v>
   <v type="int" >        8       10       18       37       38 </v>
   <v type="int" >        8       18       37       38       38 </v>
   <v type="int" >        8       15       18       37       38 </v>
   <v type="int" >        8       10       11       19       38 </v>
   <v type="int" >       16       10       18       19       38 </v>
   <v type="int" >       12       18       19       38       38 </v>
   <v type="int" >        8       11       19       38       39 </v>
   <v type="int" >       16       19       38       39       41 </v>
   <v type="int" >        8       19       38       38       41 </v>
   <v type="int" >        8       11       12       20       39 </v>
   <v type="int" >       16       11       19       20       39 </v>
   <v type="int" >        8       19       20       39       41 </v>
   <v type="int" >        8       12       20       39       40 </v>
   <v type="int" >       16       20       39       40       42 </v>
   <v type="int" >        8       20       39       41       42 </v>
   <v type="int" >       32       12       13       21       40 </v>
   <v type="int" >       24       12       20       21       40 </v>
   <v type="int" >        8       20       21       40       42 </v>
   <v type="int" >        8       13       21       40       40 </v>
   <v type="int" >       24       21       40       40       43 </v>
   <v type="int" >        8       21       40       42       43 </v>
   <v type="int" >        8       13       14       22       40 </v>
   <v type="int" >       16       13       21       22       40 </v>
   <v type="int" >        8       21       22       40       43 </v>
   <v type="int" >        8       14       22       39       40 </v>
   <v type="int" >       16       22       39       40       44 </v>
   <v type="int" >        8       22       40       43       44 </v>
   <v type="int" >        8       14       15       23       39 </v>
   <v type="int" >       16       14       22       23       39 </v>
   <v type="int" >        8       22       23       39       44 </v>
   <v type="int" >        8       15       23       38       39 </v>
   <v type="int" >       16       23       38       39       45 </v>
   <v type="int" >        8       23       39       44       45 </v>
   <v type="int" >        8       15       16       24       38 </v>
   <v type="int" >       16       15       23       24       38 </v>
   <v type="int" >        8       23       24       38       45 </v>
   <v type="int" >        8       16       24       37       38 </v>
   <v type="int" >       16       24       37       38       46 </v>
   <v type="int" >        8       24       38       45       46 </v>
   <v type="int" >        8        7       16       17       37 </v>
   <v type="int" >       16       16       17       24       37 </v>
   <v type="int" >        8       17       24       37       46 </v>
   <v type="int" >        8       16       17       24       24 </v>
   <v type="int" >        8       17       24       24       25 </v>
   <v type="int" >        8       24       24       25       30 </v>
   <v type="int" >        8       16       24       24       37 </v>
   <v type="int" >        8       24       24       37       46 </v>
   <v type="int" >        8       24       24       30       46 </v>
   <v type="int" >        8        3       15       16       37 </v>
   <v type="int" >       16       15       16       24       37 </v>
   <v type="int" >        8       15       24       37       46 </v>
   <v type="int" >        8        3        9       15       37 </v>
   <v type="int" >       16        9       15       37       38 </v>
   <v type="int" >        8       15       37       38       46 </v>
   <v type="int" >        4        3        4        9        9 </v>
   <v type="int" >       16        3        4        9       15 </v>
   <v type="int" >        8        4        9       15       38 </v>
   <v type="int" >        4        4        9        9       15 </v>
   <v type="int" >        8        4        9       10       38 </v>
   <v type="int" >        8        9       10       15       18 </v>
   <v type="int" >        4        4       10       10       15 </v>
   <v type="int" >        8       10       15       18       38 </v>
   <v type="int" >        4       10       10       14       15 </v>
   <v type="int" >        8       18       19       19       38 </v>
   <v type="int" >        8       10       14       19       38 </v>
   <v type="int" >        8       19       19       38       41 </v>
   <v type="int" >        8       14       19       38       39 </v>
   <v type="int" >        8       19       20       26       41 </v>
   <v type="int" >        8       19       19       26       41 </v>
   <v type="int" >        8       19       26       39       41 </v>
   <v type="int" >        8       20       26       41       42 </v>
   <v type="int" >        8       26       41       42       42 </v>
   <v type="int" >        8       26       39       41       42 </v>
   <v type="int" >        8       20       21       27       42 </v>
   <v type="int" >       16       20       26       27       42 </v>
   <v type="int" >       12       26       27       42       42 </v>
   <v type="int" >        8       21       27       42       43 </v>
   <v type="int" >       16       27       42       43       47 </v>
   <v type="int" >        8       27       42       42       47 </v>
   <v type="int" >        8       21       22       28       43 </v>
   <v type="int" >       16       21       27       28       43 </v>
   <v type="int" >        8       27       28       43       47 </v>
   <v type="int" >        8       22       28       43       44 </v>
   <v type="int" >       16       28       43       44       48 </v>
   <v type="int" >        8       28       43       47       48 </v>
   <v type="int" >        8       22       23       29       44 </v>
   <v type="int" >       16       22       28       29       44 </v>
   <v type="int" >        8       28       29       44       48 </v>
   <v type="int" >        8       23       29       44       45 </v>
   <v type="int" >       16       29       44       45       49 </v>
   <v type="int" >        8       29       44       48       49 </v>
   <v type="int" >        8       23       24       30       45 </v>
   <v type="int" >       16       23       29       30       45 </v>
   <v type="int" >        8       29       30       45       49 </v>
   <v type="int" >        8       24       30       45       46 </v>
   <v type="int" >       16       30       45       46       50 </v>
   <v type="int" >        8       30       45       49       50 </v>
   <v type="int" >        8       17       24       25       46 </v>
   <v type="int" >       16       24       25       30       46 </v>
   <v type="int" >        8       25       30       46       50 </v>
   <v type="int" >        8       24       25       30       30 </v>
   <v type="int" >        8       25       30       30       31 </v>
   <v type="int" >        8       30       30       31       34 </v>
   <v type="int" >        8       24       30       30       46 </v>
   <v type="int" >        8       30       30       46       50 </v>
   <v type="int" >        8       30       30       34       50 </v>
   <v type="int" >        8       15       23       24       46 </v>
   <v type="int" >       16       23       24       30       46 </v>
   <v type="int" >        8       23       30       46       50 </v>
   <v type="int" >        8       15       23       38       46 </v>
   <v type="int" >       16       23       38       45       46 </v>
   <v type="int" >        8       23       45       46       50 </v>
   <v type="int" >        8        4       14       15       38 </v>
   <v type="int" >       16       14       15       23       38 </v>
   <v type="int" >        8       14       23       38       45 </v>
   <v type="int" >        8        4       10       14       38 </v>
   <v type="int" >       16       10       14       38       39 </v>
   <v type="int" >        8       14       38       39       45 </v>
   <v type="int" >        4        4        5       10       10 </v>
   <v type="int" >       16        4        5       10       14 </v>
   <v type="int" >        8        5       10       14       39 </v>
   <v type="int" >        4        5       10       10       14 </v>
   <v type="int" >        8        5       10       11       39 </v>
   <v type="int" >        8       10       11       14       19 </v>
   <v type="int" >        4        5       11       11       14 </v>
   <v type="int" >        8       11       14       19       39 </v>
   <v type="int" >        4       11       11       13       14 </v>
   <v type="int" >        8       19       20       26       39 </v>
   <v type="int" >        8       11       13       20       39 </v>
   <v type="int" >        8       20       26       39       42 </v>
   <v type="int" >        8       13       20       39       40 </v>
   <v type="int" >        8       26       27       27       42 </v>
   <v type="int" >        8       20       27       40       42 </v>
   <v type="int" >        8       27       27       42       47 </v>
   <v type="int" >        8       27       40       42       43 </v>
   <v type="int" >        8       27       28       32       47 </v>
   <v type="int" >        8       27       27       32       47 </v>
   <v type="int" >        8       27       32       43       47 </v>
   <v type="int" >        8       28       32       47       48 </v>
   <v type="int" >        8       32       47       48       48 </v>
   <v type="int" >        8       32       43       47       48 </v>
   <v type="int" >        8       28       29       33       48 </v>
   <v type="int" >       16       28       32       33       48 </v>
   <v type="int" >       12       32       33       48       48 </v>
   <v type="int" >        8       29       33       48       49 </v>
   <v type="int" >       16       33       48       49       51 </v>
   <v type="int" >        8       33       48       48       51 </v>
   <v type="int" >        8       29       30       34       49 </v>
   <v type="int" >       16       29       33       34       49 </v>
   <v type="int" >        8       33       34       49       51 </v>
   <v type="int" >        8       30       34       49       50 </v>
   <v type="int" >       16       34       49       50       52 </v>
   <v type="int" >        8       34       49       51       52 </v>
   <v type="int" >        8       25       30       31       50 </v>
   <v type="int" >       16       30       31       34       50 </v>
   <v type="int" >        8       31       34       50       52 </v>
   <v type="int" >        8       30       31       34       34 </v>
   <v type="int" >        8       31       34       34       35 </v>
   <v type="int" >        8       34       34       35       36 </v>
   <v type="int" >        8       30       34       34       50 </v>
   <v type="int" >        8       34       34       50       52 </v>
   <v type="int" >        8       34       34       36       52 </v>
   <v type="int" >        8       23       29       30       50 </v>
   <v type="int" >       16       29       30       34       50 </v>
   <v type="int" >        8       29       34       50       52 </v>
   <v type="int" >        8       23       29       45       50 </v>
   <v type="int" >       16       29       45       49       50 </v>
   <v type="int" >        8       29       49       50       52 </v>
   <v type="int" >        8       14       22       23       45 </v>
   <v type="int" >       16       22       23       29       45 </v>
   <v type="int" >        8       22       29       45       49 </v>
   <v type="int" >        8       14       22       39       45 </v>
   <v type="int" >       16       22       39       44       45 </v>
   <v type="int" >        8       22       44       45       49 </v>
   <v type="int" >        8        5       13       14       39 </v>
   <v type="int" >       16       13       14       22       39 </v>
   <v type="int" >        8       13       22       39       44 </v>
   <v type="int" >        8        5       11       13       39 </v>
   <v type="int" >       16       11       13       39       40 </v>
   <v type="int" >        8       13       39       40       44 </v>
   <v type="int" >        4        5        6       11       11 </v>
   <v type="int" >       16        5        6       11       13 </v>
   <v type="int" >        8        6       11       13       40 </v>
   <v type="int" >        4        6       11       11       13 </v>
   <v type="int" >        8        6       11       12       40 </v>
   <v type="int" >        8       11       12       13       20 </v>
   <v type="int" >        8       12       13       20       40 </v>
   <v type="int" >        4       12       12       12       13 </v>
   <v type="int" >        8       20       21       27       40 </v>
   <v type="int" >        8       12       12       21       40 </v>
   <v type="int" >        8       21       27       40       43 </v>
   <v type="int" >       32       12       21       40       40 </v>
   <v type="int" >        8       27       28       32       43 </v>
   <v type="int" >        8       21       28       40       43 </v>
   <v type="int" >        8       28       32       43       48 </v>
   <v type="int" >        8       28       40       43       44 </v>
   <v type="int" >        8       32       33       33       48 </v>
   <v type="int" >        8       28       33       44       48 </v>
   <v type="int" >        8       33       33       48       51 </v>
   <v type="int" >        8       33       44       48       49 </v>
   <v type="int" >        8       33       34       36       51 </v>
   <v type="int" >        8       33       33       36       51 </v>
   <v type="int" >        8       33       36       49       51 </v>
   <v type="int" >        8       34       36       51       52 </v>
   <v type="int" >        8       36       51       52       52 </v>
   <v type="int" >        8       36       49       51       52 </v>
   <v type="int" >        8       31       34       35       52 </v>
   <v type="int" >       16       34       35       36       52 </v>
   <v type="int" >       12       35       36       52       52 </v>
   <v type="int" >        8       34       35       36       36 </v>
   <v type="int" >        4       35       35       36       36 </v>
   <v type="int" >        8       34       36       36       52 </v>
   <v type="int" >        4       36       36       52       52 </v>
   <v type="int" >        8       29       33       34       52 </v>
   <v type="int" >       16       33       34       36       52 </v>
   <v type="int" >       12       33       36       52       52 </v>
   <v type="int" >        8       29       33       49       52 </v>
   <v type="int" >       16       33       49       51       52 </v>
   <v type="int" >        8       33       51       52       52 </v>
   <v type="int" >        8       22       28       29       49 </v>
   <v type="int" >       16       28       29       33       49 </v>
   <v type="int" >        8       28       33       49       51 </v>
   <v type="int" >        8       22       28       44       49 </v>
   <v type="int" >       16       28       44       48       49 </v>
   <v type="int" >        8       28       48       49       51 </v>
   <v type="int" >        8       13       21       22       44 </v>
   <v type="int" >       16       21       22       28       44 </v>
   <v type="int" >        8       21       28       44       48 </v>
   <v type="int" >        8       13       21       40       44 </v>
   <v type="int" >       32       21       40       43       44 </v>
   <v type="int" >        8       21       43       44       48 </v>
   <v type="int" >        8        6       12       13       40 </v>
   <v type="int" >        8       12       21       40       43 </v>
   <v type="int" >        8        6       12       12       40 </v>
   <v type="int" >        8       12       12       40       40 </v>
   <v type="int" >        8       12       40       40       43 </v>
   <v type="int" >       12        6        6       12       12 </v>
   <v type="int" >        4        6       12       12       12 </v>
   <v type="int" >        8       12       12       13       21 </v>
   <v type="int" >        4        6       12       13       13 </v>
   <v type="int" >        4       11       12       13       13 </v>
   <v type="int" >        8       21       22       28       40 </v>
   <v type="int" >        8       11       13       22       40 </v>
   <v type="int" >        8       22       28       40       44 </v>
   <v type="int" >        8       11       22       39       40 </v>
   <v type="int" >        8       28       29       33       44 </v>
   <v type="int" >        8       22       29       39       44 </v>
   <v type="int" >        8       29       33       44       49 </v>
   <v type="int" >        8       29       39       44       45 </v>
   <v type="int" >        8       33       34       36       49 </v>
   <v type="int" >        8       29       34       45       49 </v>
   <v type="int" >        8       34       36       49       52 </v>
   <v type="int" >        8       34       45       49       50 </v>
   <v type="int" >        8       35       35       36       52 </v>
   <v type="int" >        8       34       35       50       52 </v>
   <v type="int" >        8       33       33       36       52 </v>
   <v type="int" >        8       33       34       50       52 </v>
   <v type="int" >        8       33       33       51       52 </v>
   <v type="int" >        8       33       49       50       52 </v>
   <v type="int" >        8       28       32       33       51 </v>
   <v type="int" >        8       32       33       33       51 </v>
   <v type="int" >        8       32       33       49       51 </v>
   <v type="int" >        8       28       32       48       51 </v>
   <v type="int" >        8       32       48       48       51 </v>
   <v type="int" >        8       32       48       49       51 </v>
   <v type="int" >        8       21       27       28       48 </v>
   <v type="int" >       16       27       28       32       48 </v>
   <v type="int" >       12       27       32       48       48 </v>
   <v type="int" >        8       21       27       43       48 </v>
   <v type="int" >       16       27       43       47       48 </v>
   <v type="int" >        8       27       47       48       48 </v>
   <v type="int" >        8       12       20       21       43 </v>
   <v type="int" >       16       20       21       27       43 </v>
   <v type="int" >        8       20       27       43       47 </v>
   <v type="int" >        8       12       20       40       43 </v>
   <v type="int" >       16       20       40       42       43 </v>
   <v type="int" >        8       20       42       43       47 </v>
   <v type="int" >       16       11       12       20       40 </v>
   <v type="int" >        8       11       20       40       42 </v>
   <v type="int" >        8       11       39       40       42 </v>
   <v type="int" >        4        5        6       13       13 </v>
   <v type="int" >        4        5       11       13       13 </v>
   <v type="int" >        8       11       13       14       22 </v>
   <v type="int" >        4        5       11       14       14 </v>
   <v type="int" >        8       11       14       22       39 </v>
   <v type="int" >        4       10       11       14       14 </v>
   <v type="int" >        8       22       23       29       39 </v>
   <v type="int" >        8       10       14       23       39 </v>
   <v type="int" >        8       23       29       39       45 </v>
   <v type="int" >        8       10       23       38       39 </v>
   <v type="int" >        8       29       30       34       45 </v>
   <v type="int" >        8       23       30       38       45 </v>
   <v type="int" >        8       30       34       45       50 </v>
   <v type="int" >        8       30       38       45       46 </v>
   <v type="int" >        8       31       34       35       50 </v>
   <v type="int" >        8       30       31       46       50 </v>
   <v type="int" >        8       29       33       34       50 </v>
   <v type="int" >        8       29       30       46       50 </v>
   <v type="int" >        8       29       33       49       50 </v>
   <v type="int" >        8       29       45       46       50 </v>
   <v type="int" >        8       28       32       33       49 </v>
   <v type="int" >        8       28       29       45       49 </v>
   <v type="int" >        8       28       32       48       49 </v>
   <v type="int" >        8       28       44       45       49 </v>
   <v type="int" >        8       27       27       32       48 </v>
   <v type="int" >        8       27       28       44       48 </v>
   <v type="int" >        8       27       27       47       48 </v>
   <v type="int" >        8       27       43       44       48 </v>
   <v type="int" >        8       20       26       27       47 </v>
   <v type="int" >        8       26       27       27       47 </v>
   <v type="int" >        8       26       27       43       47 </v>
   <v type="int" >        8       20       26       42       47 </v>
   <v type="int" >        8       26       42       42       47 </v>
   <v type="int" >        8       26       42       43       47 </v>
   <v type="int" >        8       11       19       20       42 </v>
   <v type="int" >       16       19       20       26       42 </v>
   <v type="int" >       12       19       26       42       42 </v>
   <v type="int" >        8       11       19       39       42 </v>
   <v type="int" >       16       19       39       41       42 </v>
   <v type="int" >        8       19       41       42       42 </v>
   <v type="int" >       16       10       11       19       39 </v>
   <v type="int" >        8       10       19       39       41 </v>
   <v type="int" >        8       10       38       39       41 </v>
   <v type="int" >        4        4        5       14       14 </v>
   <v type="int" >        4        4       10       14       14 </v>
   <v type="int" >        8       10       14       15       23 </v>
   <v type="int" >        4        4       10       15       15 </v>
   <v type="int" >        8       10       15       23       38 </v>
   <v type="int" >        4        9       10       15       15 </v>
   <v type="int" >        8       23       24       30       38 </v>
   <v type="int" >        8        9       15       24       38 </v>
   <v type="int" >        8       24       30       38       46 </v>
   <v type="int" >        8        9       24       37       38 </v>
   <v type="int" >        8       25       30       31       46 </v>
   <v type="int" >        8       24       25       37       46 </v>
   <v type="int" >        8       23       29       30       46 </v>
   <v type="int" >        8       23       24       37       46 </v>
   <v type="int" >        8       23       29       45       46 </v>
   <v type="int" >        8       23       37       38       46 </v>
   <v type="int" >        8       22       28       29       45 </v>
   <v type="int" >        8       22       23       38       45 </v>
   <v type="int" >        8       22       28       44       45 </v>
   <v type="int" >        8       22       38       39       45 </v>
   <v type="int" >        8       21       27       28       44 </v>
   <v type="int" >        8       21       22       39       44 </v>
   <v type="int" >        8       21       27       43       44 </v>
   <v type="int" >        8       21       39       40       44 </v>
   <v type="int" >        8       20       26       27       43 </v>
   <v type="int" >       24       20       21       40       43 </v>
   <v type="int" >        8       20       26       42       43 </v>
   <v type="int" >        8       20       40       40       43 </v>
   <v type="int" >        8       19       19       26       42 </v>
   <v type="int" >        8       19       20       40       42 </v>
   <v type="int" >        8       19       19       41       42 </v>
   <v type="int" >        8       19       39       40       42 </v>
   <v type="int" >        8       10       18       19       41 </v>
   <v type="int" >        8       18       19       19       41 </v>
   <v type="int" >        8       18       19       39       41 </v>
   <v type="int" >        8       10       18       38       41 </v>
   <v type="int" >        8       18       38       38       41 </v>
   <v type="int" >        8       18       38       39       41 </v>
   <v type="int" >       16        9       10       18       38 </v>
   <v type="int" >       12        9       18       38       38 </v>
   <v type="int" >        8        9       37       38       38 </v>
   <v type="int" >        4        3        4       15       15 </v>
   <v type="int" >        4        3        9       15       15 </v>
   <v type="int" >        8        9       15       16       24 </v>
   <v type="int" >        4        3        9       16       16 </v>
   <v type="int" >        8        9       16       24       37 </v>
   <v type="int" >        8       17       24       25       37 </v>
   <v type="int" >        8        8       16       17       37 </v>
   <v type="int" >        8       15       23       24       37 </v>
   <v type="int" >        8        8       15       16       37 </v>
   <v type="int" >        8       15       23       37       38 </v>
   <v type="int" >        8        8        9       15       37 </v>
   <v type="int" >        8       14       22       23       38 </v>
   <v type="int" >        8        9       14       15       38 </v>
   <v type="int" >        8       14       22       38       39 </v>
   <v type="int" >        8        9       10       14       38 </v>
   <v type="int" >        8       13       21       22       39 </v>
   <v type="int" >        8       10       13       14       39 </v>
   <v type="int" >        8       13       21       39       40 </v>
   <v type="int" >        8       10       11       13       39 </v>
   <v type="int" >        8       12       20       40       40 </v>
   <v type="int" >        8       11       12       12       40 </v>
   <v type="int" >        8       11       19       20       40 </v>
   <v type="int" >        8       11       19       39       40 </v>
   <v type="int" >        8       10       18       19       39 </v>
   <v type="int" >        8       10       18       38       39 </v>
   <v type="int" >        8        9        9       18       38 </v>
   <v type="int" >        8        9        9       37       38 </v>
   <v type="int" >        8        8        9        9       37 </v>
   <v type="int" >        4        2        3       16       16 </v>
   <v type="int" >        8        7        8       16       17 </v>
   <v type="int" >        4        2        7        7        8 </v>
   <v type="int" >        8        3        8       15       16 </v>
   <v type="int" >        8        3        8        9       15 </v>
   <v type="int" >        8        4        9       14       15 </v>
   <v type="int" >        8        4        9       10       14 </v>
   <v type="int" >        8        5       10       13       14 </v>
   <v type="int" >        8        5       10       11       13 </v>
   <v type="int" >        8        6       11       12       12 </v>
   <v type="int" >        4        1        2        7        7 </v>
   <v type="int" >        4        7       16       16       16 </v>
   <v type="int" >        4       16       16       16       17 </v>
   <v type="int" >        8       16       16       17       37 </v>
   <v type="int" >        8       15       16       17       37 </v>
   <v type="int" >        4       16       17       37       37 </v>
   <v type="int" >        8       15       17       24       37 </v>
   <v type="int" >        8       17       24       24       37 </v>
   <v type="int" >        4       17       24       37       37 </v>
   <v type="int" >        8       14       15       24       38 </v>
   <v type="int" >       16       15       24       37       38 </v>
   <v type="int" >        8       24       24       37       38 </v>
   <v type="int" >        8       14       23       24       38 </v>
   <v type="int" >       16       23       24       38       46 </v>
   <v type="int" >        8       24       24       38       46 </v>
   <v type="int" >        8       13       14       23       39 </v>
   <v type="int" >       16       14       23       38       39 </v>
   <v type="int" >        8       23       38       39       46 </v>
   <v type="int" >        8       13       22       23       39 </v>
   <v type="int" >       16       22       23       39       45 </v>
   <v type="int" >        8       23       39       45       46 </v>
   <v type="int" >        8       12       13       22       40 </v>
   <v type="int" >       16       13       22       39       40 </v>
   <v type="int" >        8       22       39       40       45 </v>
   <v type="int" >        8       12       21       22       40 </v>
   <v type="int" >       16       21       22       40       44 </v>
   <v type="int" >        8       22       40       44       45 </v>
   <v type="int" >        8       11       12       21       40 </v>
   <v type="int" >        8       21       40       40       44 </v>
   <v type="int" >        8       11       20       21       40 </v>
   <v type="int" >        8       10       11       20       39 </v>
   <v type="int" >       16       11       20       39       40 </v>
   <v type="int" >        8       20       39       40       43 </v>
   <v type="int" >        8       10       19       20       39 </v>
   <v type="int" >       16       19       20       39       42 </v>
   <v type="int" >        8       20       39       42       43 </v>
   <v type="int" >        8        9       10       19       38 </v>
   <v type="int" >       16       10       19       38       39 </v>
   <v type="int" >        8       19       38       39       42 </v>
   <v type="int" >        8        9       18       19       38 </v>
   <v type="int" >       16       18       19       38       41 </v>
   <v type="int" >        8       19       38       41       42 </v>
   <v type="int" >        8        8        9       18       37 </v>
   <v type="int" >       16        9       18       37       38 </v>
   <v type="int" >        8       18       37       38       41 </v>
   <v type="int" >        4       15       16       37       37 </v>
   <v type="int" >        4       15       24       37       37 </v>
   <v type="int" >        8       24       37       38       38 </v>
   <v type="int" >        4       15       24       38       38 </v>
   <v type="int" >        8       24       38       38       46 </v>
   <v type="int" >        4       23       24       38       38 </v>
   <v type="int" >        8       38       39       41       46 </v>
   <v type="int" >        8       38       38       41       46 </v>
   <v type="int" >        8       23       38       41       46 </v>
   <v type="int" >        8       39       41       45       46 </v>
   <v type="int" >        8       41       45       45       46 </v>
   <v type="int" >        8       23       41       45       46 </v>
   <v type="int" >        8       39       40       42       45 </v>
   <v type="int" >       16       39       41       42       45 </v>
   <v type="int" >        8       41       42       45       45 </v>
   <v type="int" >        8       40       42       44       45 </v>
   <v type="int" >       16       42       44       45       53 </v>
   <v type="int" >        8       42       45       45       53 </v>
   <v type="int" >        8       40       40       43       44 </v>
   <v type="int" >       24       40       42       43       44 </v>
   <v type="int" >        8       42       43       44       53 </v>
   <v type="int" >       24       40       43       43       44 </v>
   <v type="int" >       24       43       43       44       54 </v>
   <v type="int" >        8       43       44       53       54 </v>
   <v type="int" >        8       39       40       43       44 </v>
   <v type="int" >        8       39       42       43       44 </v>
   <v type="int" >       24       42       43       44       54 </v>
   <v type="int" >        8       43       44       54       54 </v>
   <v type="int" >        8       38       39       42       45 </v>
   <v type="int" >       16       39       42       44       45 </v>
   <v type="int" >        8       42       44       45       54 </v>
   <v type="int" >        8       38       41       42       45 </v>
   <v type="int" >       16       41       42       45       53 </v>
   <v type="int" >        8       42       45       53       54 </v>
   <v type="int" >        8       37       38       41       46 </v>
   <v type="int" >       16       38       41       45       46 </v>
   <v type="int" >        8       41       45       46       53 </v>
   <v type="int" >        8       37       38       38       46 </v>
   <v type="int" >        8       38       38       45       46 </v>
   <v type="int" >        8       38       38       41       45 </v>
   <v type="int" >        4       14       15       38       38 </v>
   <v type="int" >        4       14       23       38       38 </v>
   <v type="int" >        8       23       38       39       41 </v>
   <v type="int" >        4       14       23       39       39 </v>
   <v type="int" >        8       23       39       41       45 </v>
   <v type="int" >        4       22       23       39       39 </v>
   <v type="int" >        8       41       42       42       45 </v>
   <v type="int" >        8       22       39       42       45 </v>
   <v type="int" >        8       42       42       45       53 </v>
   <v type="int" >        8       22       42       44       45 </v>
   <v type="int" >        8       42       43       47       53 </v>
   <v type="int" >        8       42       42       47       53 </v>
   <v type="int" >        8       42       44       47       53 </v>
   <v type="int" >        8       43       47       53       54 </v>
   <v type="int" >        8       47       53       54       54 </v>
   <v type="int" >        8       44       47       53       54 </v>
   <v type="int" >       32       43       44       48       54 </v>
   <v type="int" >       24       43       47       48       54 </v>
   <v type="int" >        8       47       48       54       54 </v>
   <v type="int" >        8       44       48       54       54 </v>
   <v type="int" >       32       48       54       54       55 </v>
   <v type="int" >        8       44       45       49       54 </v>
   <v type="int" >       16       44       48       49       54 </v>
   <v type="int" >        8       48       49       54       55 </v>
   <v type="int" >        8       45       49       53       54 </v>
   <v type="int" >       16       49       53       54       56 </v>
   <v type="int" >        8       49       54       55       56 </v>
   <v type="int" >        8       45       46       50       53 </v>
   <v type="int" >       16       45       49       50       53 </v>
   <v type="int" >        8       49       50       53       56 </v>
   <v type="int" >        8       38       45       45       46 </v>
   <v type="int" >        8       45       45       46       50 </v>
   <v type="int" >        8       45       45       49       50 </v>
   <v type="int" >        8       38       41       45       45 </v>
   <v type="int" >        8       41       45       45       53 </v>
   <v type="int" >        8       45       45       49       53 </v>
   <v type="int" >       16       38       39       41       45 </v>
   <v type="int" >        8       39       41       45       53 </v>
   <v type="int" >        8       39       41       42       53 </v>
   <v type="int" >        4       13       14       39       39 </v>
   <v type="int" >        4       13       22       39       39 </v>
   <v type="int" >        8       22       39       40       42 </v>
   <v type="int" >        4       13       22       40       40 </v>
   <v type="int" >        8       22       40       42       44 </v>
   <v type="int" >        4       21       22       40       40 </v>
   <v type="int" >        8       42       43       44       47 </v>
   <v type="int" >        8       43       44       47       54 </v>
   <v type="int" >        8       21       43       43       44 </v>
   <v type="int" >        8       47       48       48       54 </v>
   <v type="int" >        8       43       43       48       54 </v>
   <v type="int" >        8       48       48       54       55 </v>
   <v type="int" >       24       43       48       54       54 </v>
   <v type="int" >        8       48       49       51       55 </v>
   <v type="int" >        8       48       48       51       55 </v>
   <v type="int" >        8       48       51       54       55 </v>
   <v type="int" >        8       49       51       55       56 </v>
   <v type="int" >        8       51       55       56       56 </v>
   <v type="int" >        8       51       54       55       56 </v>
   <v type="int" >        8       49       50       52       56 </v>
   <v type="int" >       16       49       51       52       56 </v>
   <v type="int" >        8       51       52       56       56 </v>
   <v type="int" >        8       45       49       49       50 </v>
   <v type="int" >        8       49       49       50       52 </v>
   <v type="int" >        8       49       49       51       52 </v>
   <v type="int" >        8       45       49       49       53 </v>
   <v type="int" >        8       49       49       53       56 </v>
   <v type="int" >        8       49       49       51       56 </v>
   <v type="int" >        8       39       44       45       53 </v>
   <v type="int" >       16       44       45       49       53 </v>
   <v type="int" >        8       44       49       53       56 </v>
   <v type="int" >        8       39       42       44       53 </v>
   <v type="int" >       16       42       44       53       54 </v>
   <v type="int" >        8       44       53       54       56 </v>
   <v type="int" >       16       39       40       42       44 </v>
   <v type="int" >        8       40       42       44       54 </v>
   <v type="int" >        8       40       42       43       54 </v>
   <v type="int" >        8       21       40       43       43 </v>
   <v type="int" >        4       20       21       40       40 </v>
   <v type="int" >        8       43       43       44       48 </v>
   <v type="int" >        8       20       40       43       44 </v>
   <v type="int" >        8       20       42       43       44 </v>
   <v type="int" >        8       48       49       51       54 </v>
   <v type="int" >        8       42       44       49       54 </v>
   <v type="int" >        8       49       51       54       56 </v>
   <v type="int" >        8       42       49       53       54 </v>
   <v type="int" >        8       51       52       52       56 </v>
   <v type="int" >        8       49       52       53       56 </v>
   <v type="int" >        8       49       51       51       52 </v>
   <v type="int" >        4       51       51       52       52 </v>
   <v type="int" >        8       49       51       51       56 </v>
   <v type="int" >        4       51       51       56       56 </v>
   <v type="int" >        8       44       48       49       56 </v>
   <v type="int" >       16       48       49       51       56 </v>
   <v type="int" >        8       48       51       56       56 </v>
   <v type="int" >        8       44       48       54       56 </v>
   <v type="int" >       32       48       54       55       56 </v>
   <v type="int" >        8       48       55       56       56 </v>
   <v type="int" >        8       40       43       44       54 </v>
   <v type="int" >        8       43       48       54       55 </v>
   <v type="int" >        8       40       43       43       54 </v>
   <v type="int" >        8       43       43       54       54 </v>
   <v type="int" >        8       43       54       54       55 </v>
   <v type="int" >        8       40       40       43       43 </v>
   <v type="int" >        4       11       12       40       40 </v>
   <v type="int" >        4       11       20       40       40 </v>
   <v type="int" >        8       20       39       40       44 </v>
   <v type="int" >        4       11       20       39       39 </v>
   <v type="int" >        8       20       39       42       44 </v>
   <v type="int" >        4       19       20       39       39 </v>
   <v type="int" >        8       42       44       45       49 </v>
   <v type="int" >        8       19       39       42       45 </v>
   <v type="int" >        8       42       45       49       53 </v>
   <v type="int" >        8       19       41       42       45 </v>
   <v type="int" >        8       49       50       52       53 </v>
   <v type="int" >        8       41       45       50       53 </v>
   <v type="int" >        8       48       48       51       56 </v>
   <v type="int" >        8       48       49       53       56 </v>
   <v type="int" >        8       48       48       55       56 </v>
   <v type="int" >        8       48       53       54       56 </v>
   <v type="int" >        8       43       47       48       55 </v>
   <v type="int" >        8       47       48       48       55 </v>
   <v type="int" >       24       47       48       54       55 </v>
   <v type="int" >        8       43       47       54       55 </v>
   <v type="int" >       16       47       54       54       55 </v>
   <v type="int" >       16       42       43       47       54 </v>
   <v type="int" >        8       42       47       54       54 </v>
   <v type="int" >        8       42       53       54       54 </v>
   <v type="int" >        4       10       11       39       39 </v>
   <v type="int" >        4       10       19       39       39 </v>
   <v type="int" >        8       19       38       39       45 </v>
   <v type="int" >        4       10       19       38       38 </v>
   <v type="int" >        8       19       38       41       45 </v>
   <v type="int" >        8       41       45       46       50 </v>
   <v type="int" >        8       18       38       41       46 </v>
   <v type="int" >        8       44       48       49       53 </v>
   <v type="int" >        8       41       44       45       53 </v>
   <v type="int" >        8       44       48       53       54 </v>
   <v type="int" >        8       41       42       44       53 </v>
   <v type="int" >        8       43       47       54       54 </v>
   <v type="int" >        8       42       43       43       54 </v>
   <v type="int" >        8       42       42       47       54 </v>
   <v type="int" >        8       42       42       53       54 </v>
   <v type="int" >        8       41       42       42       53 </v>
   <v type="int" >        4        9       10       38       38 </v>
   <v type="int" >        8       18       37       38       46 </v>
   <v type="int" >        4        9       18       37       37 </v>
   <v type="int" >        8       39       41       44       45 </v>
   <v type="int" >        8       39       41       42       44 </v>
   <v type="int" >        8       40       42       43       43 </v>
   <v type="int" >        4        8        9       37       37 </v>
   <v type="int" >        4       17       24       24       24 </v>
   <v type="int" >        4       24       24       24       25 </v>
   <v type="int" >        8       24       24       25       46 </v>
   <v type="int" >        8       23       24       25       46 </v>
   <v type="int" >        4       24       25       46       46 </v>
   <v type="int" >        8       23       25       30       46 </v>
   <v type="int" >        8       25       30       30       46 </v>
   <v type="int" >        4       25       30       46       46 </v>
   <v type="int" >        8       22       23       30       45 </v>
   <v type="int" >       16       23       30       45       46 </v>
   <v type="int" >        8       30       30       45       46 </v>
   <v type="int" >        8       22       29       30       45 </v>
   <v type="int" >       16       29       30       45       50 </v>
   <v type="int" >        8       30       30       45       50 </v>
   <v type="int" >        8       21       22       29       44 </v>
   <v type="int" >       16       22       29       44       45 </v>
   <v type="int" >        8       29       44       45       50 </v>
   <v type="int" >        8       21       28       29       44 </v>
   <v type="int" >       16       28       29       44       49 </v>
   <v type="int" >        8       29       44       49       50 </v>
   <v type="int" >        8       20       21       28       43 </v>
   <v type="int" >       16       21       28       43       44 </v>
   <v type="int" >        8       28       43       44       49 </v>
   <v type="int" >        8       20       27       28       43 </v>
   <v type="int" >       16       27       28       43       48 </v>
   <v type="int" >        8       28       43       48       49 </v>
   <v type="int" >        8       19       20       27       42 </v>
   <v type="int" >       16       20       27       42       43 </v>
   <v type="int" >        8       27       42       43       48 </v>
   <v type="int" >        8       19       26       27       42 </v>
   <v type="int" >       16       26       27       42       47 </v>
   <v type="int" >        8       27       42       47       48 </v>
   <v type="int" >        8       18       19       26       41 </v>
   <v type="int" >       16       19       26       41       42 </v>
   <v type="int" >        8       26       41       42       47 </v>
   <v type="int" >        4       23       24       46       46 </v>
   <v type="int" >        4       23       30       46       46 </v>
   <v type="int" >        8       30       45       45       46 </v>
   <v type="int" >        4       23       30       45       45 </v>
   <v type="int" >        8       30       45       45       50 </v>
   <v type="int" >        4       29       30       45       45 </v>
   <v type="int" >        8       44       45       50       53 </v>
   <v type="int" >        8       45       45       50       53 </v>
   <v type="int" >        8       29       45       50       53 </v>
   <v type="int" >        8       44       49       50       53 </v>
   <v type="int" >        8       49       49       50       53 </v>
   <v type="int" >        8       29       49       50       53 </v>
   <v type="int" >        8       43       44       49       54 </v>
   <v type="int" >       16       44       49       53       54 </v>
   <v type="int" >        8       49       49       53       54 </v>
   <v type="int" >        8       43       48       49       54 </v>
   <v type="int" >       16       48       49       54       56 </v>
   <v type="int" >        8       49       49       54       56 </v>
   <v type="int" >        8       42       43       48       54 </v>
   <v type="int" >        8       48       54       54       56 </v>
   <v type="int" >        8       42       47       48       54 </v>
   <v type="int" >        8       41       42       47       53 </v>
   <v type="int" >       16       42       47       53       54 </v>
   <v type="int" >        8       47       53       54       55 </v>
   <v type="int" >        4       22       23       45       45 </v>
   <v type="int" >        4       22       29       45       45 </v>
   <v type="int" >        8       29       44       45       53 </v>
   <v type="int" >        4       22       29       44       44 </v>
   <v type="int" >        8       29       44       49       53 </v>
   <v type="int" >        4       28       29       44       44 </v>
   <v type="int" >        8       49       53       54       54 </v>
   <v type="int" >        8       28       44       49       54 </v>
   <v type="int" >        8       49       54       54       56 </v>
   <v type="int" >        8       28       48       49       54 </v>
   <v type="int" >       24       54       54       55       56 </v>
   <v type="int" >       32       54       55       55       56 </v>
   <v type="int" >       16       55       55       55       56 </v>
   <v type="int" >        8       48       55       55       56 </v>
   <v type="int" >        8       53       54       55       56 </v>
   <v type="int" >        4       21       22       44       44 </v>
   <v type="int" >        4       21       28       44       44 </v>
   <v type="int" >        8       28       43       44       54 </v>
   <v type="int" >        4       21       28       43       43 </v>
   <v type="int" >        8       28       43       48       54 </v>
   <v type="int" >        4       27       28       43       43 </v>
   <v type="int" >        8       27       43       48       54 </v>
   <v type="int" >        8       48       54       55       55 </v>
   <v type="int" >        8       27       47       48       54 </v>
   <v type="int" >       12       55       55       56       56 </v>
   <v type="int" >        8       47       54       55       56 </v>
   <v type="int" >        8       53       54       54       56 </v>
   <v type="int" >       16       54       54       55       55 </v>
   <v type="int" >        4       20       21       43       43 </v>
   <v type="int" >        4       20       27       43       43 </v>
   <v type="int" >        8       27       42       43       54 </v>
   <v type="int" >        4       20       27       42       42 </v>
   <v type="int" >        8       27       42       47       54 </v>
   <v type="int" >        8       47       53       54       56 </v>
   <v type="int" >        8       26       42       47       53 </v>
   <v type="int" >        8       54       55       55       55 </v>
   <v type="int" >        2       55       55       55       55 </v>
   <v type="int" >        4       19       20       42       42 </v>
   <v type="int" >        8       26       41       42       53 </v>
   <v type="int" >        4       19       26       41       41 </v>
   <v type="int" >        4       18       19       41       41 </v>
   <v type="int" >        4       25       30       30       30 </v>
   <v type="int" >        4       30       30       30       31 </v>
   <v type="int" >        8       30       30       31       50 </v>
   <v type="int" >        8       29       30       31       50 </v>
   <v type="int" >        4       30       31       50       50 </v>
   <v type="int" >        8       29       31       34       50 </v>
   <v type="int" >        8       31       34       34       50 </v>
   <v type="int" >        4       31       34       50       50 </v>
   <v type="int" >        8       28       29       34       49 </v>
   <v type="int" >       16       29       34       49       50 </v>
   <v type="int" >        8       34       34       49       50 </v>
   <v type="int" >        8       28       33       34       49 </v>
   <v type="int" >       16       33       34       49       52 </v>
   <v type="int" >        8       34       34       49       52 </v>
   <v type="int" >        8       27       28       33       48 </v>
   <v type="int" >       16       28       33       48       49 </v>
   <v type="int" >        8       33       48       49       52 </v>
   <v type="int" >        8       27       32       33       48 </v>
   <v type="int" >       16       32       33       48       51 </v>
   <v type="int" >        8       33       48       51       52 </v>
   <v type="int" >        8       26       27       32       47 </v>
   <v type="int" >       16       27       32       47       48 </v>
   <v type="int" >        8       32       47       48       51 </v>
   <v type="int" >        4       29       30       50       50 </v>
   <v type="int" >        4       29       34       50       50 </v>
   <v type="int" >        8       34       49       49       50 </v>
   <v type="int" >        4       29       34       49       49 </v>
   <v type="int" >        8       34       49       49       52 </v>
   <v type="int" >        4       33       34       49       49 </v>
   <v type="int" >        8       48       49       52       56 </v>
   <v type="int" >        8       49       49       52       56 </v>
   <v type="int" >        8       33       49       52       56 </v>
   <v type="int" >        8       48       51       52       56 </v>
   <v type="int" >        8       51       51       52       56 </v>
   <v type="int" >        8       33       51       52       56 </v>
   <v type="int" >        8       47       48       51       55 </v>
   <v type="int" >       16       48       51       55       56 </v>
   <v type="int" >        8       51       51       55       56 </v>
   <v type="int" >        4       28       29       49       49 </v>
   <v type="int" >        4       28       33       49       49 </v>
   <v type="int" >        8       33       48       49       56 </v>
   <v type="int" >        4       28       33       48       48 </v>
   <v type="int" >        8       33       48       51       56 </v>
   <v type="int" >        8       51       55       55       56 </v>
   <v type="int" >        8       32       48       51       55 </v>
   <v type="int" >        4       27       28       48       48 </v>
   <v type="int" >        8       32       47       48       55 </v>
   <v type="int" >        4       27       32       47       47 </v>
   <v type="int" >        4       26       27       47       47 </v>
   <v type="int" >        4       31       34       34       34 </v>
   <v type="int" >        4       34       34       34       35 </v>
   <v type="int" >        8       34       34       35       52 </v>
   <v type="int" >        8       33       34       35       52 </v>
   <v type="int" >        4       34       35       52       52 </v>
   <v type="int" >        8       33       35       36       52 </v>
   <v type="int" >        8       35       36       36       52 </v>
   <v type="int" >        8       32       33       36       51 </v>
   <v type="int" >       16       33       36       51       52 </v>
   <v type="int" >        8       36       36       51       52 </v>
   <v type="int" >        4       33       34       52       52 </v>
   <v type="int" >        8       36       51       51       52 </v>
   <v type="int" >        4       33       36       51       51 </v>
   <v type="int" >        4       32       33       51       51 </v>
   <v type="int" >        4       35       36       36       36 </v>
  </varray>
  <i name="volumeweight">      0.00012522 </i>
 </kpoints>
 <parameters>
  <separator name="general" >
   <i type="string" name="SYSTEM">unknown system</i>
   <i type="logical" name="LCOMPAT"> F  </i>
  </separator>
  <separator name="electronic" >
   <i type="string" name="PREC">accura</i>
   <i name="ENMAX">    600.00000000</i>
   <i name="ENAUG">    322.06900000</i>
   <i name="EDIFF">      0.00000100</i>
   <i type="int" name="IALGO">    38</i>
   <i type="int" name="IWAVPR">    11</i>
   <i type="int" name="NBANDS">    16</i>
   <i name="NELECT">      8.00000000</i>
   <i type="int" name="TURBO">     0</i>
   <i type="int" name="IRESTART">     0</i>
   <i type="int" name="NREBOOT">     0</i>
   <i type="int" name="NMIN">     0</i>
   <i name="EREF">      0.00000000</i>
   <separator name="electronic smearing" >
    <i type="int" name="ISMEAR">    -5</i>
    <i name="SIGMA">      0.05000000</i>
    <i name="KSPACING">      0.50000000</i>
    <i type="logical" name="KGAMMA"> T  </i>
   </separator>
   <separator name="electronic projectors" >
    <i type="logical" name="LREAL"> T  </i>
    <v name="ROPT">     -0.00025000</v>
    <i type="int" name="LMAXPAW">  -100</i>
    <i type="int" name="LMAXMIX">     2</i>
    <i type="logical" name="NLSPLINE"> F  </i>
   </separator>
   <separator name="electronic startup" >
    <i type="int" name="ISTART">     0</i>
    <i type="int" name="ICHARG">     0</i>
    <i type="int" name="INIWAV">     1</i>
   </separator>
   <separator name="electronic spin" >
    <i type="int" name="ISPIN">     2</i>
    <i type="logical" name="LNONCOLLINEAR"> F  </i>
    <v name="MAGMOM">      0.00000000      0.00000000</v>
    <i name="NUPDOWN">     -1.00000000</i>
    <i type="logical" name="LSORBIT"> F  </i>
    <v name="SAXIS">      0.00000000      0.00000000      1.00000000</v>
    <i type="logical" name="LSPIRAL"> F  </i>
    <v name="QSPIRAL">      0.00000000      0.00000000      0.00000000</v>
    <i type="logical" name="LZEROZ"> F  </i>
   </separator>
   <separator name="electronic exchange-correlation" >
    <i type="logical" name="LASPH"> F  </i>
    <i type="logical" name="LMETAGGA"> F  </i>
   </separator>
   <separator name="electronic convergence" >
    <i type="int" name="NELM">   100</i>
    <i type="int" name="NELMDL">    -5</i>
    <i type="int" name="NELMIN">     2</i>
    <i name="ENINI">    600.00000000</i>
    <separator name="electronic convergence detail" >
     <i type="logical" name="LDIAG"> T  </i>
     <i type="logical" name="LSUBROT"> F  </i>
     <i name="WEIMIN">      0.00100000</i>
     <i name="EBREAK">      0.00000002</i>
     <i name="DEPER">      0.30000000</i>
     <i type="int" name="NRMM">     4</i>
     <i name="TIME">      0.40000000</i>
    </separator>
   </separator>
   <separator name="electronic mixer" >
    <i name="AMIX">      0.40000000</i>
    <i name="BMIX">      1.00000000</i>
    <i name="AMIN">      0.10000000</i>
    <i name="AMIX_MAG">      1.60000000</i>
    <i name="BMIX_MAG">      1.00000000</i>
    <separator name="electronic mixer details" >
     <i type="int" name="IMIX">     4</i>
     <i type="logical" name="MIXFIRST"> F  </i>
     <i type="int" name="MAXMIX">   -45</i>
     <i name="WC">    100.00000000</i>
     <i type="int" name="INIMIX">     1</i>
     <i type="int" name="MIXPRE">     1</i>
     <i type="int" name="MREMOVE">     5</i>
    </separator>
   </separator>
   <separator name="electronic dipolcorrection" >
    <i type="logical" name="LDIPOL"> F  </i>
    <i type="logical" name="LMONO"> F  </i>
    <i type="int" name="IDIPOL">     0</i>
    <i name="EPSILON">      1.00000000</i>
    <v name="DIPOL">   -100.00000000   -100.00000000   -100.00000000</v>
    <i name="EFIELD">      0.00000000</i>
   </separator>
  </separator>
  <separator name="grids" >
   <i type="int" name="NGX">    32</i>
   <i type="int" name="NGY">    32</i>
   <i type="int" name="NGZ">    32</i>
   <i type="int" name="NGXF">    64</i>
   <i type="int" name="NGYF">    64</i>
   <i type="int" name="NGZF">    64</i>
   <i type="logical" name="ADDGRID"> F  </i>
  </separator>
  <separator name="ionic" >
   <i type="int" name="NSW">     1</i>
   <i type="int" name="IBRION">     8</i>
   <i type="int" name="ISIF">     3</i>
   <i name="PSTRESS">      0.00000000</i>
   <i name="EDIFFG">      0.00001000</i>
   <i type="int" name="NFREE">     0</i>
   <i name="POTIM">      0.50000000</i>
   <i name="SMASS">     -3.00000000</i>
   <i name="SCALEE">      1.00000000</i>
  </separator>
  <separator name="ionic md" >
   <i name="TEBEG">      0.00010000</i>
   <i name="TEEND">      0.00010000</i>
   <i type="int" name="NBLOCK">     1</i>
   <i type="int" name="KBLOCK">     1</i>
   <i type="int" name="NPACO">   256</i>
   <i name="APACO">     16.00000000</i>
  </separator>
  <separator name="symmetry" >
   <i type="int" name="ISYM">     2</i>
   <i name="SYMPREC">      0.00001000</i>
  </separator>
  <separator name="dos" >
   <i type="logical" name="LORBIT"> F  </i>
   <v name="RWIGS">     -1.00000000</v>
   <i type="int" name="NEDOS">   301</i>
   <i name="EMIN">     10.00000000</i>
   <i name="EMAX">    -10.00000000</i>
   <i name="EFERMI">      0.00000000</i>
  </separator>
  <separator name="writing" >
   <i type="int" name="NWRITE">     2</i>
   <i type="logical" name="LWAVE"> F  </i>
   <i type="logical" name="LCHARG"> T  </i>
   <i type="logical" name="LPARD"> F  </i>
   <i type="logical" name="LVTOT"> F  </i>
   <i type="logical" name="LVHAR"> T  </i>
   <i type="logical" name="LELF"> F  </i>
   <i type="logical" name="LOPTICS"> F  </i>
   <v name="STM">      0.00000000      0.00000000      0.00000000      0.00000000      0.00000000      0.00000000      0.00000000</v>
  </separator>
  <separator name="performance" >
   <i type="int" name="NPAR">    16</i>
   <i type="int" name="NSIM">     4</i>
   <i type="int" name="NBLK">    -1</i>
   <i type="logical" name="LPLANE"> T  </i>
   <i type="logical" name="LSCALAPACK"> F  </i>
   <i type="logical" name="LSCAAWARE"> F  </i>
   <i type="logical" name="LSCALU"> F  </i>
   <i type="logical" name="LASYNC"> F  </i>
   <i type="logical" name="LORBITALREAL"> F  </i>
  </separator>
  <separator name="miscellaneous" >
   <i type="int" name="IDIOT">     3</i>
   <i type="logical" name="LMUSIC"> F  </i>
   <v name="POMASS">     28.08500000</v>
   <v name="DARWINR">      0.00000000</v>
   <v name="DARWINV">      1.00000000</v>
   <i type="logical" name="LCORR"> T  </i>
  </separator>
  <i type="logical" name="GGA_COMPAT"> T  </i>
  <i type="logical" name="LBERRY"> F  </i>
  <i type="int" name="ICORELEVEL">     0</i>
  <i type="logical" name="LDAU"> F  </i>
  <i type="int" name="I_CONSTRAINED_M">     0</i>
  <separator name="electronic exchange-correlation" >
   <i type="string" name="GGA">--</i>
   <i type="int" name="VOSKOWN">     0</i>
   <i type="logical" name="LHFCALC"> F  </i>
   <i type="string" name="PRECFOCK"></i>
   <i type="logical" name="LSYMGRAD"> F  </i>
   <i type="logical" name="LHFONE"> F  </i>
   <i type="logical" name="LRHFCALC"> F  </i>
   <i type="logical" name="LTHOMAS"> F  </i>
   <i type="logical" name="LMODELHF"> F  </i>
   <i name="ENCUT4O">     -1.00000000</i>
   <i type="int" name="EXXOEP">     0</i>
   <i type="int" name="FOURORBIT">     0</i>
   <i name="AEXX">      0.00000000</i>
   <i name="HFALPHA">      0.00000000</i>
   <i name="MCALPHA">      0.00000000</i>
   <i name="ALDAX">      1.00000000</i>
   <i name="AGGAX">      1.00000000</i>
   <i name="ALDAC">      1.00000000</i>
   <i name="AGGAC">      1.00000000</i>
   <i type="int" name="NKREDX">     1</i>
   <i type="int" name="NKREDY">     1</i>
   <i type="int" name="NKREDZ">     1</i>
   <i type="logical" name="SHIFTRED"> F  </i>
   <i type="logical" name="ODDONLY"> F  </i>
   <i type="logical" name="EVENONLY"> F  </i>
   <i type="int" name="LMAXFOCK">     0</i>
   <i type="int" name="NMAXFOCKAE">     0</i>
   <i type="logical" name="LFOCKAEDFT"> F  </i>
   <i name="HFSCREEN">      0.00000000</i>
   <i name="HFSCREENC">      0.00000000</i>
   <i type="int" name="NBANDSGWLOW">     0</i>
  </separator>
  <separator name="vdW DFT" >
   <i type="logical" name="LUSE_VDW"> F  </i>
   <i name="Zab_VDW">     -0.84910000</i>
   <i name="PARAM1">      0.12340000</i>
   <i name="PARAM2">      1.00000000</i>
   <i name="PARAM3">      0.00000000</i>
  </separator>
  <separator name="model GW" >
   <i type="int" name="MODEL_GW">     0</i>
   <i name="MODEL_EPS0">     12.27108450</i>
   <i name="MODEL_ALPHA">      1.00000000</i>
  </separator>
  <separator name="linear response parameters" >
   <i type="logical" name="LEPSILON"> T  </i>
   <i type="logical" name="LRPA"> F  </i>
   <i type="logical" name="LNABLA"> F  </i>
   <i type="logical" name="LVEL"> F  </i>
   <i type="int" name="KINTER">     0</i>
   <i name="CSHIFT">      0.10000000</i>
   <i name="OMEGAMAX">     -1.00000000</i>
   <i name="DEG_THRESHOLD">      0.00200000</i>
  </separator>
  <separator name="orbital magnetization" >
   <i type="logical" name="NUCIND"> F  </i>
   <v name="MAGPOS">      0.00000000      0.00000000      0.00000000</v>
   <i type="logical" name="LNICSALL"> T  </i>
   <i type="logical" name="ORBITALMAG"> F  </i>
   <i type="logical" name="LMAGBLOCH"> F  </i>
   <i type="logical" name="LCHIMAG"> F  </i>
   <i type="logical" name="LGAUGE"> T  </i>
   <i type="int" name="MAGATOM">     0</i>
   <v name="MAGDIPOL">      0.00000000      0.00000000      0.00000000</v>
   <v name="AVECCONST">      0.00000000      0.00000000      0.00000000</v>
  </separator>
  <separator name="response functions" >
   <i type="logical" name="LADDER"> F  </i>
   <i type="logical" name="LFXC"> F  </i>
   <i type="logical" name="LHARTREE"> T  </i>
   <i type="int" name="IBSE">     0</i>
   <v type="int" name="KPOINT">    -1     0     0     0</v>
   <i type="logical" name="LTCTE"> F  </i>
   <i type="logical" name="LTETE"> F  </i>
   <i type="logical" name="LTRIPLET"> F  </i>
   <i type="logical" name="LFXCEPS"> F  </i>
   <i type="logical" name="LFXHEG"> F  </i>
   <i type="int" name="NATURALO">     0</i>
   <i type="logical" name="L2ORDER"> F  </i>
   <i type="logical" name="LUSEW"> F  </i>
   <i name="ENCUTGW">     -2.00000000</i>
   <i name="ENCUTGWSOFT">     -2.00000000</i>
   <i name="ENCUTLF">     -1.00000000</i>
   <i type="int" name="LMAXMP2">    -1</i>
   <i name="SCISSOR">      0.00000000</i>
   <i type="int" name="NOMEGA">     0</i>
   <i type="int" name="NOMEGAR">     0</i>
   <i type="int" name="NBANDSGW">    -1</i>
   <i type="int" name="NBANDSO">    -1</i>
   <i type="int" name="NBANDSV">    -1</i>
   <i type="int" name="NELM">   100</i>
   <i type="int" name="NELMHF">     1</i>
   <i type="int" name="DIM">     3</i>
   <i type="int" name="ANTIRES">     0</i>
   <i name="OMEGAMAX">    -30.00000000</i>
   <i name="OMEGAMIN">    -30.00000000</i>
   <i name="OMEGATL">   -200.00000000</i>
   <i type="int" name="OMEGAGRID">     0</i>
   <i name="CSHIFT">     -0.10000000</i>
   <i type="logical" name="SELFENERGY"> F  </i>
   <i type="logical" name="LSPECTRAL"> F  </i>
   <i type="logical" name="LSPECTRALGW"> F  </i>
   <i type="logical" name="LSINGLES"> F  </i>
   <i type="logical" name="LFERMIGW"> F  </i>
   <i type="logical" name="ODDONLYGW"> F  </i>
   <i type="logical" name="EVENONLYGW"> F  </i>
   <i type="int" name="NKREDLFX">     1</i>
   <i type="int" name="NKREDLFY">     1</i>
   <i type="int" name="NKREDLFZ">     1</i>
   <i type="int" name="MAXMEM">  1800</i>
   <i type="int" name="TELESCOPE">     0</i>
   <i type="int" name="TAUPAR">     1</i>
   <i type="int" name="OMEGAPAR">    -1</i>
   <i name="LAMBDA">      1.00000000</i>
  </separator>
  <separator name="External order field" >
   <i name="OFIELD_KAPPA">      0.00000000</i>
   <v name="OFIELD_K">      0.00000000      0.00000000      0.00000000</v>
   <i name="OFIELD_Q6_NEAR">      0.00000000</i>
   <i name="OFIELD_Q6_FAR">      0.00000000</i>
   <i name="OFIELD_A">      0.00000000</i>
  </separator>
 </parameters>
 <atominfo>
  <atoms>       2 </atoms>
  <types>       1 </types>
  <array name="atoms" >
   <dimension dim="1">ion</dimension>
[...]
       </set>
       <set comment="band 12">
        <r>  0.0152  0.0420  0.0430  0.0101  0.0000  0.0000  0.0000  0.0000  0.0000 </r>
        <r>  0.0152  0.0420  0.0430  0.0101  0.0000  0.0000  0.0000  0.0000  0.0000 </r>
       </set>
       <set comment="band 13">
        <r>  0.0044  0.0475  0.0238  0.0420  0.0000  0.0000  0.0000  0.0000  0.0000 </r>
        <r>  0.0044  0.0475  0.0238  0.0420  0.0000  0.0000  0.0000  0.0000  0.0000 </r>
       </set>
       <set comment="band 14">
        <r>  0.0146  0.0668  0.0481  0.0069  0.0000  0.0000  0.0000  0.0000  0.0000 </r>
        <r>  0.0146  0.0668  0.0481  0.0069  0.0000  0.0000  0.0000  0.0000  0.0000 </r>
       </set>
       <set comment="band 15">
        <r>  0.0148  0.0054  0.0037  0.0011  0.0000  0.0000  0.0000  0.0000  0.0000 </r>
        <r>  0.0148  0.0054  0.0037  0.0011  0.0000  0.0000  0.0000  0.0000  0.0000 </r>
       </set>
       <set comment="band 16">
        <r>  0.0062  0.0025  0.0020  0.0192  0.0000  0.0000  0.0000  0.0000  0.0000 </r>
        <r>  0.0062  0.0025  0.0020  0.0192  0.0000  0.0000  0.0000  0.0000  0.0000 </r>
       </set>
      </set>
      <set comment="kpoint 52">
       <set comment="band 1">
        <r>  0.1986  0.0214  0.0139  0.0009  0.0000  0.0000  0.0000  0.0000  0.0000 </r>
        <r>  0.1986  0.0214  0.0139  0.0009  0.0000  0.0000  0.0000  0.0000  0.0000 </r>
       </set>
       <set comment="band 2">
        <r>  0.1925  0.0311  0.0179  0.0018  0.0000  0.0000  0.0000  0.0000  0.0000 </r>
        <r>  0.1925  0.0311  0.0179  0.0018  0.0000  0.0000  0.0000  0.0000  0.0000 </r>
       </set>
       <set comment="band 3">
        <r>  0.0040  0.0158  0.0771  0.0832  0.0000  0.0000  0.0000  0.0000  0.0000 </r>
        <r>  0.0040  0.0158  0.0771  0.0832  0.0000  0.0000  0.0000  0.0000  0.0000 </r>
       </set>
       <set comment="band 4">
        <r>  0.0009  0.0570  0.0388  0.0844  0.0000  0.0000  0.0000  0.0000  0.0000 </r>
        <r>  0.0009  0.0570  0.0388  0.0844  0.0000  0.0000  0.0000  0.0000  0.0000 </r>
       </set>
       <set comment="band 5">
        <r>  0.0439  0.0426  0.0050  0.0143  0.0000  0.0000  0.0000  0.0000  0.0000 </r>
        <r>  0.0439  0.0426  0.0050  0.0143  0.0000  0.0000  0.0000  0.0000  0.0000 </r>
       </set>
       <set comment="band 6">
        <r>  0.0434  0.0086  0.0307  0.0122  0.0000  0.0000  0.0000  0.0000  0.0000 </r>
        <r>  0.0434  0.0086  0.0307  0.0122  0.0000  0.0000  0.0000  0.0000  0.0000 </r>
       </set>
       <set comment="band 7">
        <r>  0.0191  0.0590  0.0180  0.0554  0.0000  0.0000  0.0000  0.0000  0.0000 </r>
        <r>  0.0191  0.0590  0.0180  0.0554  0.0000  0.0000  0.0000  0.0000  0.0000 </r>
       </set>
       <set comment="band 8">
        <r>  0.0072  0.0232  0.0843  0.1029  0.0000  0.0000  0.0000  0.0000  0.0000 </r>
        <r>  0.0072  0.0232  0.0843  0.1029  0.0000  0.0000  0.0000  0.0000  0.0000 </r>
       </set>
       <set comment="band 9">
        <r>  0.0052  0.0232  0.0184  0.0051  0.0000  0.0000  0.0000  0.0000  0.0000 </r>
        <r>  0.0052  0.0232  0.0184  0.0051  0.0000  0.0000  0.0000  0.0000  0.0000 </r>
       </set>
       <set comment="band 10">
        <r>  0.0106  0.0188  0.0606  0.0349  0.0000  0.0000  0.0000  0.0000  0.0000 </r>
        <r>  0.0106  0.0188  0.0606  0.0349  0.0000  0.0000  0.0000  0.0000  0.0000 </r>
       </set>
       <set comment="band 11">
        <r>  0.0203  0.0401  0.0155  0.0215  0.0000  0.0000  0.0000  0.0000  0.0000 </r>
        <r>  0.0203  0.0401  0.0155  0.0215  0.0000  0.0000  0.0000  0.0000  0.0000 </r>
       </set>
       <set comment="band 12">
        <r>  0.0139  0.0729  0.0330  0.0023  0.0000  0.0000  0.0000  0.0000  0.0000 </r>
        <r>  0.0139  0.0729  0.0330  0.0023  0.0000  0.0000  0.0000  0.0000  0.0000 </r>
       </set>
       <set comment="band 13">
        <r>  0.0322  0.0346  0.0676  0.0132  0.0000  0.0000  0.0000  0.0000  0.0000 </r>
        <r>  0.0322  0.0346  0.0676  0.0132  0.0000  0.0000  0.0000  0.0000  0.0000 </r>
       </set>
       <set comment="band 14">
        <r>  0.0041  0.0814  0.0092  0.0134  0.0000  0.0000  0.0000  0.0000  0.0000 </r>
        <r>  0.0041  0.0814  0.0092  0.0134  0.0000  0.0000  0.0000  0.0000  0.0000 </r>
       </set>
       <set comment="band 15">
        <r>  0.0000  0.0042  0.0077  0.0099  0.0000  0.0000  0.0000  0.0000  0.0000 </r>
        <r>  0.0000  0.0042  0.0077  0.0099  0.0000  0.0000  0.0000  0.0000  0.0000 </r>
       </set>
       <set comment="band 16">
        <r>  0.0383  0.0004  0.0051  0.0048  0.0000  0.0000  0.0000  0.0000  0.0000 </r>
        <r>  0.0383  0.0004  0.0051  0.0048  0.0000  0.0000  0.0000  0.0000  0.0000 </r>
       </set>
      </set>
      <set comment="kpoint 53">
       <set comment="band 1">
        <r>  0.2064  0.0034  0.0037  0.0179  0.0000  0.0000  0.0000  0.0000  0.0000 </r>
        <r>  0.2064  0.0034  0.0037  0.0179  0.0000  0.0000  0.0000  0.0000  0.0000 </r>
       </set>
       <set comment="band 2">
        <r>  0.1785  0.0191  0.0128  0.0345  0.0000  0.0000  0.0000  0.0000  0.0000 </r>
        <r>  0.1785  0.0191  0.0128  0.0345  0.0000  0.0000  0.0000  0.0000  0.0000 </r>
       </set>
       <set comment="band 3">
        <r>  0.0095  0.0530  0.0281  0.0753  0.0000  0.0000  0.0000  0.0000  0.0000 </r>
        <r>  0.0095  0.0530  0.0281  0.0753  0.0000  0.0000  0.0000  0.0000  0.0000 </r>
       </set>
       <set comment="band 4">
        <r>  0.0029  0.0705  0.1050  0.0024  0.0000  0.0000  0.0000  0.0000  0.0000 </r>
        <r>  0.0029  0.0705  0.1050  0.0024  0.0000  0.0000  0.0000  0.0000  0.0000 </r>
       </set>
       <set comment="band 5">
        <r>  0.0284  0.0425  0.0567  0.0000  0.0000  0.0000  0.0000  0.0000  0.0000 </r>
        <r>  0.0284  0.0425  0.0567  0.0000  0.0000  0.0000  0.0000  0.0000  0.0000 </r>
       </set>
       <set comment="band 6">
        <r>  0.0168  0.0055  0.0070  0.0527  0.0000  0.0000  0.0000  0.0000  0.0000 </r>
        <r>  0.0168  0.0055  0.0070  0.0527  0.0000  0.0000  0.0000  0.0000  0.0000 </r>
       </set>
       <set comment="band 7">
        <r>  0.0635  0.0507  0.0496  0.0001  0.0000  0.0000  0.0000  0.0000  0.0000 </r>
        <r>  0.0635  0.0507  0.0496  0.0001  0.0000  0.0000  0.0000  0.0000  0.0000 </r>
       </set>
       <set comment="band 8">
        <r>  0.0051  0.0758  0.0684  0.0040  0.0000  0.0000  0.0000  0.0000  0.0000 </r>
        <r>  0.0051  0.0758  0.0684  0.0040  0.0000  0.0000  0.0000  0.0000  0.0000 </r>
       </set>
       <set comment="band 9">
        <r>  0.0113  0.0164  0.0084  0.0948  0.0000  0.0000  0.0000  0.0000  0.0000 </r>
        <r>  0.0113  0.0164  0.0084  0.0948  0.0000  0.0000  0.0000  0.0000  0.0000 </r>
       </set>
       <set comment="band 10">
        <r>  0.0354  0.0069  0.0100  0.0572  0.0000  0.0000  0.0000  0.0000  0.0000 </r>
        <r>  0.0354  0.0069  0.0100  0.0572  0.0000  0.0000  0.0000  0.0000  0.0000 </r>
       </set>
       <set comment="band 11">
        <r>  0.0097  0.0114  0.0085  0.0051  0.0000  0.0000  0.0000  0.0000  0.0000 </r>
        <r>  0.0097  0.0114  0.0085  0.0051  0.0000  0.0000  0.0000  0.0000  0.0000 </r>
       </set>
       <set comment="band 12">
        <r>  0.0257  0.0462  0.0231  0.1070  0.0000  0.0000  0.0000  0.0000  0.0000 </r>
        <r>  0.0257  0.0462  0.0231  0.1070  0.0000  0.0000  0.0000  0.0000  0.0000 </r>
       </set>
       <set comment="band 13">
        <r>  0.0087  0.0207  0.0315  0.0233  0.0000  0.0000  0.0000  0.0000  0.0000 </r>
        <r>  0.0087  0.0207  0.0315  0.0233  0.0000  0.0000  0.0000  0.0000  0.0000 </r>
       </set>
       <set comment="band 14">
        <r>  0.0067  0.0190  0.0122  0.0079  0.0000  0.0000  0.0000  0.0000  0.0000 </r>
        <r>  0.0067  0.0190  0.0122  0.0079  0.0000  0.0000  0.0000  0.0000  0.0000 </r>
       </set>
       <set comment="band 15">
        <r>  0.0357  0.0070  0.0140  0.0310  0.0000  0.0000  0.0000  0.0000  0.0000 </r>
        <r>  0.0357  0.0070  0.0140  0.0310  0.0000  0.0000  0.0000  0.0000  0.0000 </r>
       </set>
       <set comment="band 16">
        <r>  0.0051  0.0069  0.0035  0.0223  0.0000  0.0000  0.0000  0.0000  0.0000 </r>
        <r>  0.0051  0.0069  0.0035  0.0223  0.0000  0.0000  0.0000  0.0000  0.0000 </r>
       </set>
      </set>
      <set comment="kpoint 54">
       <set comment="band 1">
        <r>  0.2109  0.0061  0.0069  0.0156  0.0000  0.0000  0.0000  0.0000  0.0000 </r>
        <r>  0.2109  0.0061  0.0069  0.0156  0.0000  0.0000  0.0000  0.0000  0.0000 </r>
       </set>
       <set comment="band 2">
        <r>  0.1798  0.0211  0.0113  0.0271  0.0000  0.0000  0.0000  0.0000  0.0000 </r>
        <r>  0.1798  0.0211  0.0113  0.0271  0.0000  0.0000  0.0000  0.0000  0.0000 </r>
       </set>
       <set comment="band 3">
        <r>  0.0106  0.0194  0.0547  0.0780  0.0000  0.0000  0.0000  0.0000  0.0000 </r>
        <r>  0.0106  0.0194  0.0547  0.0780  0.0000  0.0000  0.0000  0.0000  0.0000 </r>
       </set>
       <set comment="band 4">
        <r>  0.0014  0.0987  0.0675  0.0073  0.0000  0.0000  0.0000  0.0000  0.0000 </r>
        <r>  0.0014  0.0987  0.0675  0.0073  0.0000  0.0000  0.0000  0.0000  0.0000 </r>
       </set>
       <set comment="band 5">
        <r>  0.0190  0.0370  0.0238  0.0254  0.0000  0.0000  0.0000  0.0000  0.0000 </r>
        <r>  0.0190  0.0370  0.0238  0.0254  0.0000  0.0000  0.0000  0.0000  0.0000 </r>
       </set>
       <set comment="band 6">
        <r>  0.0421  0.0441  0.0444  0.0018  0.0000  0.0000  0.0000  0.0000  0.0000 </r>
        <r>  0.0421  0.0441  0.0444  0.0018  0.0000  0.0000  0.0000  0.0000  0.0000 </r>
       </set>
       <set comment="band 7">
        <r>  0.0371  0.0088  0.0504  0.0340  0.0000  0.0000  0.0000  0.0000  0.0000 </r>
        <r>  0.0371  0.0088  0.0504  0.0340  0.0000  0.0000  0.0000  0.0000  0.0000 </r>
       </set>
       <set comment="band 8">
        <r>  0.0244  0.0175  0.0112  0.0832  0.0000  0.0000  0.0000  0.0000  0.0000 </r>
        <r>  0.0244  0.0175  0.0112  0.0832  0.0000  0.0000  0.0000  0.0000  0.0000 </r>
       </set>
       <set comment="band 9">
        <r>  0.0116  0.0459  0.0707  0.0155  0.0000  0.0000  0.0000  0.0000  0.0000 </r>
        <r>  0.0116  0.0459  0.0707  0.0155  0.0000  0.0000  0.0000  0.0000  0.0000 </r>
       </set>
       <set comment="band 10">
        <r>  0.0175  0.0315  0.0027  0.0611  0.0000  0.0000  0.0000  0.0000  0.0000 </r>
        <r>  0.0175  0.0315  0.0027  0.0611  0.0000  0.0000  0.0000  0.0000  0.0000 </r>
       </set>
       <set comment="band 11">
        <r>  0.0113  0.0828  0.0103  0.0135  0.0000  0.0000  0.0000  0.0000  0.0000 </r>
        <r>  0.0113  0.0828  0.0103  0.0135  0.0000  0.0000  0.0000  0.0000  0.0000 </r>
       </set>
       <set comment="band 12">
        <r>  0.0126  0.0106  0.0325  0.0200  0.0000  0.0000  0.0000  0.0000  0.0000 </r>
        <r>  0.0126  0.0106  0.0325  0.0200  0.0000  0.0000  0.0000  0.0000  0.0000 </r>
       </set>
       <set comment="band 13">
        <r>  0.0064  0.0154  0.0422  0.0310  0.0000  0.0000  0.0000  0.0000  0.0000 </r>
        <r>  0.0064  0.0154  0.0422  0.0310  0.0000  0.0000  0.0000  0.0000  0.0000 </r>
       </set>
       <set comment="band 14">
        <r>  0.0161  0.0177  0.0050  0.0993  0.0000  0.0000  0.0000  0.0000  0.0000 </r>
        <r>  0.0161  0.0177  0.0050  0.0993  0.0000  0.0000  0.0000  0.0000  0.0000 </r>
       </set>
       <set comment="band 15">
        <r>  0.0242  0.0025  0.0118  0.0011  0.0000  0.0000  0.0000  0.0000  0.0000 </r>
        <r>  0.0242  0.0025  0.0118  0.0011  0.0000  0.0000  0.0000  0.0000  0.0000 </r>
       </set>
       <set comment="band 16">
        <r>  0.0178  0.0102  0.0390  0.0177  0.0000  0.0000  0.0000  0.0000  0.0000 </r>
        <r>  0.0178  0.0102  0.0390  0.0177  0.0000  0.0000  0.0000  0.0000  0.0000 </r>
       </set>
      </set>
      <set comment="kpoint 55">
       <set comment="band 1">
        <r>  0.2091  0.0139  0.0096  0.0116  0.0000  0.0000  0.0000  0.0000  0.0000 </r>
        <r>  0.2091  0.0139  0.0096  0.0116  0.0000  0.0000  0.0000  0.0000  0.0000 </r>
       </set>
       <set comment="band 2">
        <r>  0.1962  0.0215  0.0133  0.0129  0.0000  0.0000  0.0000  0.0000  0.0000 </r>
        <r>  0.1962  0.0215  0.0133  0.0129  0.0000  0.0000  0.0000  0.0000  0.0000 </r>
       </set>
       <set comment="band 3">
        <r>  0.0003  0.0328  0.0168  0.1063  0.0000  0.0000  0.0000  0.0000  0.0000 </r>
        <r>  0.0003  0.0328  0.0168  0.1063  0.0000  0.0000  0.0000  0.0000  0.0000 </r>
       </set>
       <set comment="band 4">
        <r>  0.0015  0.0653  0.1002  0.0005  0.0000  0.0000  0.0000  0.0000  0.0000 </r>
        <r>  0.0015  0.0653  0.1002  0.0005  0.0000  0.0000  0.0000  0.0000  0.0000 </r>
       </set>
       <set comment="band 5">
        <r>  0.0275  0.0328  0.0450  0.0051  0.0000  0.0000  0.0000  0.0000  0.0000 </r>
        <r>  0.0275  0.0328  0.0450  0.0051  0.0000  0.0000  0.0000  0.0000  0.0000 </r>
       </set>
       <set comment="band 6">
        <r>  0.0015  0.0101  0.0198  0.0563  0.0000  0.0000  0.0000  0.0000  0.0000 </r>
        <r>  0.0015  0.0101  0.0198  0.0563  0.0000  0.0000  0.0000  0.0000  0.0000 </r>
       </set>
       <set comment="band 7">
        <r>  0.0525  0.0500  0.0474  0.0183  0.0000  0.0000  0.0000  0.0000  0.0000 </r>
        <r>  0.0525  0.0500  0.0474  0.0183  0.0000  0.0000  0.0000  0.0000  0.0000 </r>
       </set>
       <set comment="band 8">
        <r>  0.0414  0.0228  0.0114  0.0623  0.0000  0.0000  0.0000  0.0000  0.0000 </r>
        <r>  0.0414  0.0228  0.0114  0.0623  0.0000  0.0000  0.0000  0.0000  0.0000 </r>
       </set>
       <set comment="band 9">
        <r>  0.0032  0.0680  0.0715  0.0000  0.0000  0.0000  0.0000  0.0000  0.0000 </r>
        <r>  0.0032  0.0680  0.0715  0.0000  0.0000  0.0000  0.0000  0.0000  0.0000 </r>
       </set>
       <set comment="band 10">
        <r>  0.0102  0.0039  0.0058  0.1015  0.0000  0.0000  0.0000  0.0000  0.0000 </r>
        <r>  0.0102  0.0039  0.0058  0.1015  0.0000  0.0000  0.0000  0.0000  0.0000 </r>
       </set>
       <set comment="band 11">
        <r>  0.0186  0.0714  0.0416  0.0014  0.0000  0.0000  0.0000  0.0000  0.0000 </r>
        <r>  0.0186  0.0714  0.0416  0.0014  0.0000  0.0000  0.0000  0.0000  0.0000 </r>
       </set>
       <set comment="band 12">
        <r>  0.0158  0.0401  0.0453  0.0268  0.0000  0.0000  0.0000  0.0000  0.0000 </r>
        <r>  0.0158  0.0401  0.0453  0.0268  0.0000  0.0000  0.0000  0.0000  0.0000 </r>
       </set>
       <set comment="band 13">
        <r>  0.0040  0.0097  0.0056  0.0170  0.0000  0.0000  0.0000  0.0000  0.0000 </r>
        <r>  0.0040  0.0097  0.0056  0.0170  0.0000  0.0000  0.0000  0.0000  0.0000 </r>
       </set>
       <set comment="band 14">
        <r>  0.0165  0.0015  0.0024  0.0062  0.0000  0.0000  0.0000  0.0000  0.0000 </r>
        <r>  0.0165  0.0015  0.0024  0.0062  0.0000  0.0000  0.0000  0.0000  0.0000 </r>
       </set>
       <set comment="band 15">
        <r>  0.0020  0.0384  0.0192  0.0748  0.0000  0.0000  0.0000  0.0000  0.0000 </r>
        <r>  0.0020  0.0384  0.0192  0.0748  0.0000  0.0000  0.0000  0.0000  0.0000 </r>
       </set>
       <set comment="band 16">
        <r>  0.0083  0.0417  0.0280  0.0020  0.0000  0.0000  0.0000  0.0000  0.0000 </r>
        <r>  0.0083  0.0417  0.0280  0.0020  0.0000  0.0000  0.0000  0.0000  0.0000 </r>
       </set>
      </set>
      <set comment="kpoint 56">
       <set comment="band 1">
        <r>  0.2045  0.0170  0.0144  0.0038  0.0000  0.0000  0.0000  0.0000  0.0000 </r>
        <r>  0.2045  0.0170  0.0144  0.0038  0.0000  0.0000  0.0000  0.0000  0.0000 </r>
       </set>
       <set comment="band 2">
        <r>  0.1971  0.0226  0.0185  0.0076  0.0000  0.0000  0.0000  0.0000  0.0000 </r>
        <r>  0.1971  0.0226  0.0185  0.0076  0.0000  0.0000  0.0000  0.0000  0.0000 </r>
       </set>
       <set comment="band 3">
        <r>  0.0038  0.0121  0.0806  0.0670  0.0000  0.0000  0.0000  0.0000  0.0000 </r>
        <r>  0.0038  0.0121  0.0806  0.0670  0.0000  0.0000  0.0000  0.0000  0.0000 </r>
       </set>
       <set comment="band 4">
        <r>  0.0000  0.0794  0.0211  0.0662  0.0000  0.0000  0.0000  0.0000  0.0000 </r>
        <r>  0.0000  0.0794  0.0211  0.0662  0.0000  0.0000  0.0000  0.0000  0.0000 </r>
       </set>
       <set comment="band 5">
        <r>  0.0310  0.0474  0.0079  0.0304  0.0000  0.0000  0.0000  0.0000  0.0000 </r>
        <r>  0.0310  0.0474  0.0079  0.0304  0.0000  0.0000  0.0000  0.0000  0.0000 </r>
       </set>
       <set comment="band 6">
        <r>  0.0301  0.0032  0.0428  0.0284  0.0000  0.0000  0.0000  0.0000  0.0000 </r>
        <r>  0.0301  0.0032  0.0428  0.0284  0.0000  0.0000  0.0000  0.0000  0.0000 </r>
       </set>
       <set comment="band 7">
        <r>  0.0371  0.0566  0.0121  0.0386  0.0000  0.0000  0.0000  0.0000  0.0000 </r>
        <r>  0.0371  0.0566  0.0121  0.0386  0.0000  0.0000  0.0000  0.0000  0.0000 </r>
       </set>
       <set comment="band 8">
        <r>  0.0244  0.0098  0.0666  0.0391  0.0000  0.0000  0.0000  0.0000  0.0000 </r>
        <r>  0.0244  0.0098  0.0666  0.0391  0.0000  0.0000  0.0000  0.0000  0.0000 </r>
       </set>
       <set comment="band 9">
        <r>  0.0005  0.0546  0.0254  0.0563  0.0000  0.0000  0.0000  0.0000  0.0000 </r>
        <r>  0.0005  0.0546  0.0254  0.0563  0.0000  0.0000  0.0000  0.0000  0.0000 </r>
       </set>
       <set comment="band 10">
        <r>  0.0116  0.0250  0.0673  0.0218  0.0000  0.0000  0.0000  0.0000  0.0000 </r>
        <r>  0.0116  0.0250  0.0673  0.0218  0.0000  0.0000  0.0000  0.0000  0.0000 </r>
       </set>
       <set comment="band 11">
        <r>  0.0204  0.0340  0.0255  0.0421  0.0000  0.0000  0.0000  0.0000  0.0000 </r>
        <r>  0.0204  0.0340  0.0255  0.0421  0.0000  0.0000  0.0000  0.0000  0.0000 </r>
       </set>
       <set comment="band 12">
        <r>  0.0138  0.0723  0.0321  0.0089  0.0000  0.0000  0.0000  0.0000  0.0000 </r>
        <r>  0.0138  0.0723  0.0321  0.0089  0.0000  0.0000  0.0000  0.0000  0.0000 </r>
       </set>
       <set comment="band 13">
        <r>  0.0070  0.0109  0.0288  0.0187  0.0000  0.0000  0.0000  0.0000  0.0000 </r>
        <r>  0.0070  0.0109  0.0288  0.0187  0.0000  0.0000  0.0000  0.0000  0.0000 </r>
       </set>
       <set comment="band 14">
        <r>  0.0095  0.0159  0.0524  0.0134  0.0000  0.0000  0.0000  0.0000  0.0000 </r>
        <r>  0.0095  0.0159  0.0524  0.0134  0.0000  0.0000  0.0000  0.0000  0.0000 </r>
       </set>
       <set comment="band 15">
        <r>  0.0183  0.0173  0.0024  0.0050  0.0000  0.0000  0.0000  0.0000  0.0000 </r>
        <r>  0.0183  0.0173  0.0024  0.0050  0.0000  0.0000  0.0000  0.0000  0.0000 </r>
       </set>
       <set comment="band 16">
        <r>  0.0263  0.0353  0.0112  0.0141  0.0000  0.0000  0.0000  0.0000  0.0000 </r>
        <r>  0.0263  0.0353  0.0112  0.0141  0.0000  0.0000  0.0000  0.0000  0.0000 </r>
       </set>
      </set>
     </set>
    </set>
   </array>
  </projected>
 </calculation>
 <structure name="finalpos" >
  <crystal>
   <varray name="basis" >
    <v>       3.86745700       0.00000000       0.00000000 </v>
    <v>       1.93372800       3.34931700       0.00000000 </v>
    <v>       0.00000000      -2.23287600       3.15776600 </v>
   </varray>
   <i name="volume">     40.90361499 </i>
   <varray name="rec_basis" >
    <v>       0.25856784      -0.14928413      -0.10555974 </v>
    <v>       0.00000000       0.29856833       0.21111953 </v>
    <v>       0.00000000       0.00000000       0.31667958 </v>
   </varray>
  </crystal>
  <varray name="positions" >
   <v>       0.00000000       0.00000000       0.00000000 </v>
   <v>       0.75000000       0.50000000       0.75000000 </v>
  </varray>
 </structure>
</modeling>
